LAMMPS Description

     3468  atoms
     4427  bonds
     10027  angles
     7701  dihedrals
     5184  impropers

     8  atom types
     10  bond types
     16  angle types
     5  dihedral types
     1  improper types

  0.0 41.4 xlo xhi
  0.0 41.4 ylo yhi
  0.0 41.4 zlo zhi

Masses

1 91.224000000  # Zr3+4
2 15.999400000  # O_R
3 12.010700000  # C_R
4 1.007940000  # H_
5 15.999400000  # O_2
6 12.010700000  # C_3
7 15.999400000  # O_3
8 1.007940000  # H_

Atoms  # full

1 1 1 0.00000 2.48177 0.0 0.0
2 1 1 0.00000 2.48177 10.3502 10.3502
3 1 1 0.00000 12.83197 0.0 10.3502
4 1 1 0.00000 12.83197 10.3502 0.0
5 1 1 0.00000 18.21863 0.0 0.0
6 1 1 0.00000 18.21863 10.3502 10.3502
7 1 1 0.00000 7.86843 0.0 10.3502
8 1 1 0.00000 7.86843 10.3502 0.0
9 1 1 0.00000 0.0 2.48177 0.0
10 1 1 0.00000 0.0 12.83197 10.3502
11 1 1 0.00000 10.3502 2.48177 10.3502
12 1 1 0.00000 10.3502 12.83197 0.0
13 1 1 0.00000 0.0 18.21863 0.0
14 1 1 0.00000 0.0 7.86843 10.3502
15 1 1 0.00000 10.3502 18.21863 10.3502
16 1 1 0.00000 10.3502 7.86843 0.0
17 1 1 0.00000 0.0 0.0 2.48177
18 1 1 0.00000 0.0 10.3502 12.83197
19 1 1 0.00000 10.3502 0.0 12.83197
20 1 1 0.00000 10.3502 10.3502 2.48177
21 1 1 0.00000 0.0 0.0 18.21863
22 1 1 0.00000 0.0 10.3502 7.86843
23 1 1 0.00000 10.3502 0.0 7.86843
24 1 1 0.00000 10.3502 10.3502 18.21863
25 1 2 0.00000 3.5288 0.0 1.97275
26 1 3 0.00000 5.53736 0.0 3.81715
27 1 4 0.00000 5.76962 0.0 2.70099
28 1 2 0.00000 3.5288 10.3502 12.32295
29 1 3 0.00000 5.53736 10.3502 14.16735
30 1 4 0.00000 5.76962 10.3502 13.05119
31 1 2 0.00000 13.879 0.0 12.32295
32 1 3 0.00000 15.88756 0.0 14.16735
33 1 4 0.00000 16.11982 0.0 13.05119
34 1 2 0.00000 13.879 10.3502 1.97275
35 1 3 0.00000 15.88756 10.3502 3.81715
36 1 4 0.00000 16.11982 10.3502 2.70099
37 1 2 0.00000 17.1716 0.0 1.97275
38 1 3 0.00000 15.16304 0.0 3.81715
39 1 4 0.00000 14.93078 0.0 2.70099
40 1 2 0.00000 17.1716 10.3502 12.32295
41 1 3 0.00000 15.16304 10.3502 14.16735
42 1 4 0.00000 14.93078 10.3502 13.05119
43 1 2 0.00000 6.8214 0.0 12.32295
44 1 3 0.00000 4.81284 0.0 14.16735
45 1 4 0.00000 4.58058 0.0 13.05119
46 1 2 0.00000 6.8214 10.3502 1.97275
47 1 3 0.00000 4.81284 10.3502 3.81715
48 1 4 0.00000 4.58058 10.3502 2.70099
49 1 2 0.00000 17.1716 0.0 18.72765
50 1 3 0.00000 15.16304 0.0 16.88325
51 1 4 0.00000 14.93078 0.0 17.99941
52 1 2 0.00000 17.1716 10.3502 8.37745
53 1 3 0.00000 15.16304 10.3502 6.53305
54 1 4 0.00000 14.93078 10.3502 7.64921
55 1 2 0.00000 6.8214 0.0 8.37745
56 1 3 0.00000 4.81284 0.0 6.53305
57 1 4 0.00000 4.58058 0.0 7.64921
58 1 2 0.00000 6.8214 10.3502 18.72765
59 1 3 0.00000 4.81284 10.3502 16.88325
60 1 4 0.00000 4.58058 10.3502 17.99941
61 1 2 0.00000 3.5288 0.0 18.72765
62 1 3 0.00000 5.53736 0.0 16.88325
63 1 4 0.00000 5.76962 0.0 17.99941
64 1 2 0.00000 3.5288 10.3502 8.37745
65 1 3 0.00000 5.53736 10.3502 6.53305
66 1 4 0.00000 5.76962 10.3502 7.64921
67 1 2 0.00000 13.879 0.0 8.37745
68 1 3 0.00000 15.88756 0.0 6.53305
69 1 4 0.00000 16.11982 0.0 7.64921
70 1 2 0.00000 13.879 10.3502 18.72765
71 1 3 0.00000 15.88756 10.3502 16.88325
72 1 4 0.00000 16.11982 10.3502 17.99941
73 1 2 0.00000 1.97275 3.5288 0.0
74 1 3 0.00000 3.81715 5.53736 0.0
75 1 4 0.00000 2.70099 5.76962 0.0
76 1 2 0.00000 1.97275 13.879 10.3502
77 1 3 0.00000 3.81715 15.88756 10.3502
78 1 4 0.00000 2.70099 16.11982 10.3502
79 1 2 0.00000 12.32295 3.5288 10.3502
80 1 3 0.00000 14.16735 5.53736 10.3502
81 1 4 0.00000 13.05119 5.76962 10.3502
82 1 2 0.00000 12.32295 13.879 0.0
83 1 3 0.00000 14.16735 15.88756 0.0
84 1 4 0.00000 13.05119 16.11982 0.0
85 1 2 0.00000 1.97275 17.1716 0.0
86 1 3 0.00000 3.81715 15.16304 0.0
87 1 4 0.00000 2.70099 14.93078 0.0
88 1 2 0.00000 1.97275 6.8214 10.3502
89 1 3 0.00000 3.81715 4.81284 10.3502
90 1 4 0.00000 2.70099 4.58058 10.3502
91 1 2 0.00000 12.32295 17.1716 10.3502
92 1 3 0.00000 14.16735 15.16304 10.3502
93 1 4 0.00000 13.05119 14.93078 10.3502
94 1 2 0.00000 12.32295 6.8214 0.0
95 1 3 0.00000 14.16735 4.81284 0.0
96 1 4 0.00000 13.05119 4.58058 0.0
97 1 2 0.00000 18.72765 17.1716 0.0
98 1 3 0.00000 16.88325 15.16304 0.0
99 1 4 0.00000 17.99941 14.93078 0.0
100 1 2 0.00000 18.72765 6.8214 10.3502
101 1 3 0.00000 16.88325 4.81284 10.3502
102 1 4 0.00000 17.99941 4.58058 10.3502
103 1 2 0.00000 8.37745 17.1716 10.3502
104 1 3 0.00000 6.53305 15.16304 10.3502
105 1 4 0.00000 7.64921 14.93078 10.3502
106 1 2 0.00000 8.37745 6.8214 0.0
107 1 3 0.00000 6.53305 4.81284 0.0
108 1 4 0.00000 7.64921 4.58058 0.0
109 1 2 0.00000 18.72765 3.5288 0.0
110 1 3 0.00000 16.88325 5.53736 0.0
111 1 4 0.00000 17.99941 5.76962 0.0
112 1 2 0.00000 18.72765 13.879 10.3502
113 1 3 0.00000 16.88325 15.88756 10.3502
114 1 4 0.00000 17.99941 16.11982 10.3502
115 1 2 0.00000 8.37745 3.5288 10.3502
116 1 3 0.00000 6.53305 5.53736 10.3502
117 1 4 0.00000 7.64921 5.76962 10.3502
118 1 2 0.00000 8.37745 13.879 0.0
119 1 3 0.00000 6.53305 15.88756 0.0
120 1 4 0.00000 7.64921 16.11982 0.0
121 1 2 0.00000 0.0 1.97275 3.5288
122 1 3 0.00000 0.0 3.81715 5.53736
123 1 4 0.00000 0.0 2.70099 5.76962
124 1 2 0.00000 0.0 12.32295 13.879
125 1 3 0.00000 0.0 14.16735 15.88756
126 1 4 0.00000 0.0 13.05119 16.11982
127 1 2 0.00000 10.3502 1.97275 13.879
128 1 3 0.00000 10.3502 3.81715 15.88756
129 1 4 0.00000 10.3502 2.70099 16.11982
130 1 2 0.00000 10.3502 12.32295 3.5288
131 1 3 0.00000 10.3502 14.16735 5.53736
132 1 4 0.00000 10.3502 13.05119 5.76962
133 1 2 0.00000 0.0 1.97275 17.1716
134 1 3 0.00000 0.0 3.81715 15.16304
135 1 4 0.00000 0.0 2.70099 14.93078
136 1 2 0.00000 0.0 12.32295 6.8214
137 1 3 0.00000 0.0 14.16735 4.81284
138 1 4 0.00000 0.0 13.05119 4.58058
139 1 2 0.00000 10.3502 1.97275 6.8214
140 1 3 0.00000 10.3502 3.81715 4.81284
141 1 4 0.00000 10.3502 2.70099 4.58058
142 1 2 0.00000 10.3502 12.32295 17.1716
143 1 3 0.00000 10.3502 14.16735 15.16304
144 1 4 0.00000 10.3502 13.05119 14.93078
145 1 2 0.00000 0.0 18.72765 17.1716
146 1 3 0.00000 0.0 16.88325 15.16304
147 1 4 0.00000 0.0 17.99941 14.93078
148 1 2 0.00000 0.0 8.37745 6.8214
149 1 3 0.00000 0.0 6.53305 4.81284
150 1 4 0.00000 0.0 7.64921 4.58058
151 1 2 0.00000 10.3502 18.72765 6.8214
152 1 3 0.00000 10.3502 16.88325 4.81284
153 1 4 0.00000 10.3502 17.99941 4.58058
154 1 2 0.00000 10.3502 8.37745 17.1716
155 1 3 0.00000 10.3502 6.53305 15.16304
156 1 4 0.00000 10.3502 7.64921 14.93078
157 1 2 0.00000 0.0 18.72765 3.5288
158 1 3 0.00000 0.0 16.88325 5.53736
159 1 4 0.00000 0.0 17.99941 5.76962
160 1 2 0.00000 0.0 8.37745 13.879
161 1 3 0.00000 0.0 6.53305 15.88756
162 1 4 0.00000 0.0 7.64921 16.11982
163 1 2 0.00000 10.3502 18.72765 13.879
164 1 3 0.00000 10.3502 16.88325 15.88756
165 1 4 0.00000 10.3502 17.99941 16.11982
166 1 2 0.00000 10.3502 8.37745 3.5288
167 1 3 0.00000 10.3502 6.53305 5.53736
168 1 4 0.00000 10.3502 7.64921 5.76962
169 1 2 0.00000 0.0 3.5288 18.72765
170 1 3 0.00000 0.0 5.53736 16.88325
171 1 4 0.00000 0.0 5.76962 17.99941
172 1 2 0.00000 0.0 13.879 8.37745
173 1 3 0.00000 0.0 15.88756 6.53305
174 1 4 0.00000 0.0 16.11982 7.64921
175 1 2 0.00000 10.3502 3.5288 8.37745
176 1 3 0.00000 10.3502 5.53736 6.53305
177 1 4 0.00000 10.3502 5.76962 7.64921
178 1 2 0.00000 10.3502 13.879 18.72765
179 1 3 0.00000 10.3502 15.88756 16.88325
180 1 4 0.00000 10.3502 16.11982 17.99941
181 1 2 0.00000 0.0 17.1716 18.72765
182 1 3 0.00000 0.0 15.16304 16.88325
183 1 4 0.00000 0.0 14.93078 17.99941
184 1 2 0.00000 0.0 6.8214 8.37745
185 1 3 0.00000 0.0 4.81284 6.53305
186 1 4 0.00000 0.0 4.58058 7.64921
187 1 2 0.00000 10.3502 17.1716 8.37745
188 1 3 0.00000 10.3502 15.16304 6.53305
189 1 4 0.00000 10.3502 14.93078 7.64921
190 1 2 0.00000 10.3502 6.8214 18.72765
191 1 3 0.00000 10.3502 4.81284 16.88325
192 1 4 0.00000 10.3502 4.58058 17.99941
193 1 2 0.00000 0.0 17.1716 1.97275
194 1 3 0.00000 0.0 15.16304 3.81715
195 1 4 0.00000 0.0 14.93078 2.70099
196 1 2 0.00000 0.0 6.8214 12.32295
197 1 3 0.00000 0.0 4.81284 14.16735
198 1 4 0.00000 0.0 4.58058 13.05119
199 1 2 0.00000 10.3502 17.1716 12.32295
200 1 3 0.00000 10.3502 15.16304 14.16735
201 1 4 0.00000 10.3502 14.93078 13.05119
202 1 2 0.00000 10.3502 6.8214 1.97275
203 1 3 0.00000 10.3502 4.81284 3.81715
204 1 4 0.00000 10.3502 4.58058 2.70099
205 1 2 0.00000 0.0 3.5288 1.97275
206 1 3 0.00000 0.0 5.53736 3.81715
207 1 4 0.00000 0.0 5.76962 2.70099
208 1 2 0.00000 0.0 13.879 12.32295
209 1 3 0.00000 0.0 15.88756 14.16735
210 1 4 0.00000 0.0 16.11982 13.05119
211 1 2 0.00000 10.3502 3.5288 12.32295
212 1 3 0.00000 10.3502 5.53736 14.16735
213 1 4 0.00000 10.3502 5.76962 13.05119
214 1 2 0.00000 10.3502 13.879 1.97275
215 1 3 0.00000 10.3502 15.88756 3.81715
216 1 4 0.00000 10.3502 16.11982 2.70099
217 1 2 0.00000 3.5288 1.97275 0.0
218 1 3 0.00000 5.53736 3.81715 0.0
219 1 4 0.00000 5.76962 2.70099 0.0
220 1 2 0.00000 3.5288 12.32295 10.3502
221 1 3 0.00000 5.53736 14.16735 10.3502
222 1 4 0.00000 5.76962 13.05119 10.3502
223 1 2 0.00000 13.879 1.97275 10.3502
224 1 3 0.00000 15.88756 3.81715 10.3502
225 1 4 0.00000 16.11982 2.70099 10.3502
226 1 2 0.00000 13.879 12.32295 0.0
227 1 3 0.00000 15.88756 14.16735 0.0
228 1 4 0.00000 16.11982 13.05119 0.0
229 1 2 0.00000 17.1716 1.97275 0.0
230 1 3 0.00000 15.16304 3.81715 0.0
231 1 4 0.00000 14.93078 2.70099 0.0
232 1 2 0.00000 17.1716 12.32295 10.3502
233 1 3 0.00000 15.16304 14.16735 10.3502
234 1 4 0.00000 14.93078 13.05119 10.3502
235 1 2 0.00000 6.8214 1.97275 10.3502
236 1 3 0.00000 4.81284 3.81715 10.3502
237 1 4 0.00000 4.58058 2.70099 10.3502
238 1 2 0.00000 6.8214 12.32295 0.0
239 1 3 0.00000 4.81284 14.16735 0.0
240 1 4 0.00000 4.58058 13.05119 0.0
241 1 2 0.00000 17.1716 18.72765 0.0
242 1 3 0.00000 15.16304 16.88325 0.0
243 1 4 0.00000 14.93078 17.99941 0.0
244 1 2 0.00000 17.1716 8.37745 10.3502
245 1 3 0.00000 15.16304 6.53305 10.3502
246 1 4 0.00000 14.93078 7.64921 10.3502
247 1 2 0.00000 6.8214 18.72765 10.3502
248 1 3 0.00000 4.81284 16.88325 10.3502
249 1 4 0.00000 4.58058 17.99941 10.3502
250 1 2 0.00000 6.8214 8.37745 0.0
251 1 3 0.00000 4.81284 6.53305 0.0
252 1 4 0.00000 4.58058 7.64921 0.0
253 1 2 0.00000 3.5288 18.72765 0.0
254 1 3 0.00000 5.53736 16.88325 0.0
255 1 4 0.00000 5.76962 17.99941 0.0
256 1 2 0.00000 3.5288 8.37745 10.3502
257 1 3 0.00000 5.53736 6.53305 10.3502
258 1 4 0.00000 5.76962 7.64921 10.3502
259 1 2 0.00000 13.879 18.72765 10.3502
260 1 3 0.00000 15.88756 16.88325 10.3502
261 1 4 0.00000 16.11982 17.99941 10.3502
262 1 2 0.00000 13.879 8.37745 0.0
263 1 3 0.00000 15.88756 6.53305 0.0
264 1 4 0.00000 16.11982 7.64921 0.0
265 1 2 0.00000 1.97275 0.0 17.1716
266 1 3 0.00000 3.81715 0.0 15.16304
267 1 4 0.00000 2.70099 0.0 14.93078
268 1 2 0.00000 1.97275 10.3502 6.8214
269 1 3 0.00000 3.81715 10.3502 4.81284
270 1 4 0.00000 2.70099 10.3502 4.58058
271 1 2 0.00000 12.32295 0.0 6.8214
272 1 3 0.00000 14.16735 0.0 4.81284
273 1 4 0.00000 13.05119 0.0 4.58058
274 1 2 0.00000 12.32295 10.3502 17.1716
275 1 3 0.00000 14.16735 10.3502 15.16304
276 1 4 0.00000 13.05119 10.3502 14.93078
277 1 2 0.00000 1.97275 0.0 3.5288
278 1 3 0.00000 3.81715 0.0 5.53736
279 1 4 0.00000 2.70099 0.0 5.76962
280 1 2 0.00000 1.97275 10.3502 13.879
281 1 3 0.00000 3.81715 10.3502 15.88756
282 1 4 0.00000 2.70099 10.3502 16.11982
283 1 2 0.00000 12.32295 0.0 13.879
284 1 3 0.00000 14.16735 0.0 15.88756
285 1 4 0.00000 13.05119 0.0 16.11982
286 1 2 0.00000 12.32295 10.3502 3.5288
287 1 3 0.00000 14.16735 10.3502 5.53736
288 1 4 0.00000 13.05119 10.3502 5.76962
289 1 2 0.00000 18.72765 0.0 3.5288
290 1 3 0.00000 16.88325 0.0 5.53736
291 1 4 0.00000 17.99941 0.0 5.76962
292 1 2 0.00000 18.72765 10.3502 13.879
293 1 3 0.00000 16.88325 10.3502 15.88756
294 1 4 0.00000 17.99941 10.3502 16.11982
295 1 2 0.00000 8.37745 0.0 13.879
296 1 3 0.00000 6.53305 0.0 15.88756
297 1 4 0.00000 7.64921 0.0 16.11982
298 1 2 0.00000 8.37745 10.3502 3.5288
299 1 3 0.00000 6.53305 10.3502 5.53736
300 1 4 0.00000 7.64921 10.3502 5.76962
301 1 2 0.00000 18.72765 0.0 17.1716
302 1 3 0.00000 16.88325 0.0 15.16304
303 1 4 0.00000 17.99941 0.0 14.93078
304 1 2 0.00000 18.72765 10.3502 6.8214
305 1 3 0.00000 16.88325 10.3502 4.81284
306 1 4 0.00000 17.99941 10.3502 4.58058
307 1 2 0.00000 8.37745 0.0 6.8214
308 1 3 0.00000 6.53305 0.0 4.81284
309 1 4 0.00000 7.64921 0.0 4.58058
310 1 2 0.00000 8.37745 10.3502 17.1716
311 1 3 0.00000 6.53305 10.3502 15.16304
312 1 4 0.00000 7.64921 10.3502 14.93078
313 1 5 0.00000 1.16129 9.18891 9.18891
314 1 5 0.00000 11.51149 19.53911 9.18891
315 1 5 0.00000 11.51149 9.18891 19.53911
316 1 5 0.00000 9.18891 1.16129 9.18891
317 1 5 0.00000 9.18891 11.51149 19.53911
318 1 5 0.00000 19.53911 19.53911 1.16129
319 1 5 0.00000 19.53911 9.18891 11.51149
320 1 5 0.00000 1.16129 1.16129 1.16129
321 1 5 0.00000 11.51149 11.51149 1.16129
322 1 5 0.00000 19.53911 1.16129 1.16129
323 1 5 0.00000 19.53911 11.51149 11.51149
324 1 5 0.00000 9.18891 1.16129 11.51149
325 1 5 0.00000 9.18891 11.51149 1.16129
326 1 5 0.00000 1.16129 19.53911 1.16129
327 1 5 0.00000 1.16129 9.18891 11.51149
328 1 5 0.00000 11.51149 19.53911 11.51149
329 1 5 0.00000 11.51149 9.18891 1.16129
330 1 5 0.00000 19.53911 19.53911 19.53911
331 1 5 0.00000 19.53911 9.18891 9.18891
332 1 5 0.00000 9.18891 19.53911 9.18891
333 1 5 0.00000 9.18891 9.18891 19.53911
334 1 5 0.00000 1.16129 1.16129 19.53911
335 1 5 0.00000 1.16129 11.51149 9.18891
336 1 5 0.00000 11.51149 1.16129 9.18891
337 1 3 0.00000 3.17958 0.0 17.52082
338 1 3 0.00000 3.17958 10.3502 7.17062
339 1 3 0.00000 13.52978 0.0 7.17062
340 1 3 0.00000 13.52978 10.3502 17.52082
341 1 3 0.00000 17.52082 0.0 17.52082
342 1 3 0.00000 17.52082 10.3502 7.17062
343 1 3 0.00000 7.17062 0.0 7.17062
344 1 3 0.00000 7.17062 10.3502 17.52082
345 1 3 0.00000 17.52082 0.0 3.17958
346 1 3 0.00000 17.52082 10.3502 13.52978
347 1 3 0.00000 7.17062 0.0 13.52978
348 1 3 0.00000 7.17062 10.3502 3.17958
349 1 3 0.00000 3.17958 0.0 3.17958
350 1 3 0.00000 3.17958 10.3502 13.52978
351 1 3 0.00000 13.52978 0.0 13.52978
352 1 3 0.00000 13.52978 10.3502 3.17958
353 1 3 0.00000 17.52082 3.17958 0.0
354 1 3 0.00000 17.52082 13.52978 10.3502
355 1 3 0.00000 7.17062 3.17958 10.3502
356 1 3 0.00000 7.17062 13.52978 0.0
357 1 3 0.00000 17.52082 17.52082 0.0
358 1 3 0.00000 17.52082 7.17062 10.3502
359 1 3 0.00000 7.17062 17.52082 10.3502
360 1 3 0.00000 7.17062 7.17062 0.0
361 1 3 0.00000 3.17958 17.52082 0.0
362 1 3 0.00000 3.17958 7.17062 10.3502
363 1 3 0.00000 13.52978 17.52082 10.3502
364 1 3 0.00000 13.52978 7.17062 0.0
365 1 3 0.00000 3.17958 3.17958 0.0
366 1 3 0.00000 3.17958 13.52978 10.3502
367 1 3 0.00000 13.52978 3.17958 10.3502
368 1 3 0.00000 13.52978 13.52978 0.0
369 1 3 0.00000 0.0 17.52082 3.17958
370 1 3 0.00000 0.0 7.17062 13.52978
371 1 3 0.00000 10.3502 17.52082 13.52978
372 1 3 0.00000 10.3502 7.17062 3.17958
373 1 3 0.00000 0.0 17.52082 17.52082
374 1 3 0.00000 0.0 7.17062 7.17062
375 1 3 0.00000 10.3502 17.52082 7.17062
376 1 3 0.00000 10.3502 7.17062 17.52082
377 1 3 0.00000 0.0 3.17958 17.52082
378 1 3 0.00000 0.0 13.52978 7.17062
379 1 3 0.00000 10.3502 3.17958 7.17062
380 1 3 0.00000 10.3502 13.52978 17.52082
381 1 3 0.00000 0.0 3.17958 3.17958
382 1 3 0.00000 0.0 13.52978 13.52978
383 1 3 0.00000 10.3502 3.17958 13.52978
384 1 3 0.00000 10.3502 13.52978 3.17958
385 1 3 0.00000 4.24358 0.0 4.24358
386 1 3 0.00000 4.24358 10.3502 14.59378
387 1 3 0.00000 14.59378 0.0 14.59378
388 1 3 0.00000 14.59378 10.3502 4.24358
389 1 3 0.00000 16.45682 0.0 4.24358
390 1 3 0.00000 16.45682 10.3502 14.59378
391 1 3 0.00000 6.10662 0.0 14.59378
392 1 3 0.00000 6.10662 10.3502 4.24358
393 1 3 0.00000 16.45682 0.0 16.45682
394 1 3 0.00000 16.45682 10.3502 6.10662
395 1 3 0.00000 6.10662 0.0 6.10662
396 1 3 0.00000 6.10662 10.3502 16.45682
397 1 3 0.00000 4.24358 0.0 16.45682
398 1 3 0.00000 4.24358 10.3502 6.10662
399 1 3 0.00000 14.59378 0.0 6.10662
400 1 3 0.00000 14.59378 10.3502 16.45682
401 1 3 0.00000 4.24358 4.24358 0.0
402 1 3 0.00000 4.24358 14.59378 10.3502
403 1 3 0.00000 14.59378 4.24358 10.3502
404 1 3 0.00000 14.59378 14.59378 0.0
405 1 3 0.00000 4.24358 16.45682 0.0
406 1 3 0.00000 4.24358 6.10662 10.3502
407 1 3 0.00000 14.59378 16.45682 10.3502
408 1 3 0.00000 14.59378 6.10662 0.0
409 1 3 0.00000 16.45682 16.45682 0.0
410 1 3 0.00000 16.45682 6.10662 10.3502
411 1 3 0.00000 6.10662 16.45682 10.3502
412 1 3 0.00000 6.10662 6.10662 0.0
413 1 3 0.00000 16.45682 4.24358 0.0
414 1 3 0.00000 16.45682 14.59378 10.3502
415 1 3 0.00000 6.10662 4.24358 10.3502
416 1 3 0.00000 6.10662 14.59378 0.0
417 1 3 0.00000 0.0 4.24358 4.24358
418 1 3 0.00000 0.0 14.59378 14.59378
419 1 3 0.00000 10.3502 4.24358 14.59378
420 1 3 0.00000 10.3502 14.59378 4.24358
421 1 3 0.00000 0.0 4.24358 16.45682
422 1 3 0.00000 0.0 14.59378 6.10662
423 1 3 0.00000 10.3502 4.24358 6.10662
424 1 3 0.00000 10.3502 14.59378 16.45682
425 1 3 0.00000 0.0 16.45682 16.45682
426 1 3 0.00000 0.0 6.10662 6.10662
427 1 3 0.00000 10.3502 16.45682 6.10662
428 1 3 0.00000 10.3502 6.10662 16.45682
429 1 3 0.00000 0.0 16.45682 4.24358
430 1 3 0.00000 0.0 6.10662 14.59378
431 1 3 0.00000 10.3502 16.45682 14.59378
432 1 3 0.00000 10.3502 6.10662 4.24358
433 1 1 0.00000 2.48177 0.0 20.7004
434 1 1 0.00000 2.48177 10.3502 31.0506
435 1 1 0.00000 12.83197 0.0 31.0506
436 1 1 0.00000 12.83197 10.3502 20.7004
437 1 1 0.00000 18.21863 0.0 20.7004
438 1 1 0.00000 18.21863 10.3502 31.0506
439 1 1 0.00000 7.86843 0.0 31.0506
440 1 1 0.00000 7.86843 10.3502 20.7004
441 1 1 0.00000 0.0 2.48177 20.7004
442 1 1 0.00000 0.0 12.83197 31.0506
443 1 1 0.00000 10.3502 2.48177 31.0506
444 1 1 0.00000 10.3502 12.83197 20.7004
445 1 1 0.00000 0.0 18.21863 20.7004
446 1 1 0.00000 0.0 7.86843 31.0506
447 1 1 0.00000 10.3502 18.21863 31.0506
448 1 1 0.00000 10.3502 7.86843 20.7004
449 1 1 0.00000 0.0 0.0 23.18217
450 1 1 0.00000 0.0 10.3502 33.53237
451 1 1 0.00000 10.3502 0.0 33.53237
452 1 1 0.00000 10.3502 10.3502 23.18217
453 1 1 0.00000 0.0 0.0 38.91903
454 1 1 0.00000 0.0 10.3502 28.56883
455 1 1 0.00000 10.3502 0.0 28.56883
456 1 1 0.00000 10.3502 10.3502 38.91903
457 1 2 0.00000 3.5288 0.0 22.67315
458 1 3 0.00000 5.53736 0.0 24.51755
459 1 4 0.00000 5.76962 0.0 23.40139
460 1 2 0.00000 3.5288 10.3502 33.02335
461 1 3 0.00000 5.53736 10.3502 34.86775
462 1 4 0.00000 5.76962 10.3502 33.75159
463 1 2 0.00000 13.879 0.0 33.02335
464 1 3 0.00000 15.88756 0.0 34.86775
465 1 4 0.00000 16.11982 0.0 33.75159
466 1 2 0.00000 13.879 10.3502 22.67315
467 1 3 0.00000 15.88756 10.3502 24.51755
468 1 4 0.00000 16.11982 10.3502 23.40139
469 1 2 0.00000 17.1716 0.0 22.67315
470 1 3 0.00000 15.16304 0.0 24.51755
471 1 4 0.00000 14.93078 0.0 23.40139
472 1 2 0.00000 17.1716 10.3502 33.02335
473 1 3 0.00000 15.16304 10.3502 34.86775
474 1 4 0.00000 14.93078 10.3502 33.75159
475 1 2 0.00000 6.8214 0.0 33.02335
476 1 3 0.00000 4.81284 0.0 34.86775
477 1 4 0.00000 4.58058 0.0 33.75159
478 1 2 0.00000 6.8214 10.3502 22.67315
479 1 3 0.00000 4.81284 10.3502 24.51755
480 1 4 0.00000 4.58058 10.3502 23.40139
481 1 2 0.00000 17.1716 0.0 39.42805
482 1 3 0.00000 15.16304 0.0 37.58365
483 1 4 0.00000 14.93078 0.0 38.69981
484 1 2 0.00000 17.1716 10.3502 29.07785
485 1 3 0.00000 15.16304 10.3502 27.23345
486 1 4 0.00000 14.93078 10.3502 28.34961
487 1 2 0.00000 6.8214 0.0 29.07785
488 1 3 0.00000 4.81284 0.0 27.23345
489 1 4 0.00000 4.58058 0.0 28.34961
490 1 2 0.00000 6.8214 10.3502 39.42805
491 1 3 0.00000 4.81284 10.3502 37.58365
492 1 4 0.00000 4.58058 10.3502 38.69981
493 1 2 0.00000 3.5288 0.0 39.42805
494 1 3 0.00000 5.53736 0.0 37.58365
495 1 4 0.00000 5.76962 0.0 38.69981
496 1 2 0.00000 3.5288 10.3502 29.07785
497 1 3 0.00000 5.53736 10.3502 27.23345
498 1 4 0.00000 5.76962 10.3502 28.34961
499 1 2 0.00000 13.879 0.0 29.07785
500 1 3 0.00000 15.88756 0.0 27.23345
501 1 4 0.00000 16.11982 0.0 28.34961
502 1 2 0.00000 13.879 10.3502 39.42805
503 1 3 0.00000 15.88756 10.3502 37.58365
504 1 4 0.00000 16.11982 10.3502 38.69981
505 1 2 0.00000 1.97275 3.5288 20.7004
506 1 3 0.00000 3.81715 5.53736 20.7004
507 1 4 0.00000 2.70099 5.76962 20.7004
508 1 2 0.00000 1.97275 13.879 31.0506
509 1 3 0.00000 3.81715 15.88756 31.0506
510 1 4 0.00000 2.70099 16.11982 31.0506
511 1 2 0.00000 12.32295 3.5288 31.0506
512 1 3 0.00000 14.16735 5.53736 31.0506
513 1 4 0.00000 13.05119 5.76962 31.0506
514 1 2 0.00000 12.32295 13.879 20.7004
515 1 3 0.00000 14.16735 15.88756 20.7004
516 1 4 0.00000 13.05119 16.11982 20.7004
517 1 2 0.00000 1.97275 17.1716 20.7004
518 1 3 0.00000 3.81715 15.16304 20.7004
519 1 4 0.00000 2.70099 14.93078 20.7004
520 1 2 0.00000 1.97275 6.8214 31.0506
521 1 3 0.00000 3.81715 4.81284 31.0506
522 1 4 0.00000 2.70099 4.58058 31.0506
523 1 2 0.00000 12.32295 17.1716 31.0506
524 1 3 0.00000 14.16735 15.16304 31.0506
525 1 4 0.00000 13.05119 14.93078 31.0506
526 1 2 0.00000 12.32295 6.8214 20.7004
527 1 3 0.00000 14.16735 4.81284 20.7004
528 1 4 0.00000 13.05119 4.58058 20.7004
529 1 2 0.00000 18.72765 17.1716 20.7004
530 1 3 0.00000 16.88325 15.16304 20.7004
531 1 4 0.00000 17.99941 14.93078 20.7004
532 1 2 0.00000 18.72765 6.8214 31.0506
533 1 3 0.00000 16.88325 4.81284 31.0506
534 1 4 0.00000 17.99941 4.58058 31.0506
535 1 2 0.00000 8.37745 17.1716 31.0506
536 1 3 0.00000 6.53305 15.16304 31.0506
537 1 4 0.00000 7.64921 14.93078 31.0506
538 1 2 0.00000 8.37745 6.8214 20.7004
539 1 3 0.00000 6.53305 4.81284 20.7004
540 1 4 0.00000 7.64921 4.58058 20.7004
541 1 2 0.00000 18.72765 3.5288 20.7004
542 1 3 0.00000 16.88325 5.53736 20.7004
543 1 4 0.00000 17.99941 5.76962 20.7004
544 1 2 0.00000 18.72765 13.879 31.0506
545 1 3 0.00000 16.88325 15.88756 31.0506
546 1 4 0.00000 17.99941 16.11982 31.0506
547 1 2 0.00000 8.37745 3.5288 31.0506
548 1 3 0.00000 6.53305 5.53736 31.0506
549 1 4 0.00000 7.64921 5.76962 31.0506
550 1 2 0.00000 8.37745 13.879 20.7004
551 1 3 0.00000 6.53305 15.88756 20.7004
552 1 4 0.00000 7.64921 16.11982 20.7004
553 1 2 0.00000 0.0 1.97275 24.2292
554 1 3 0.00000 0.0 3.81715 26.23776
555 1 4 0.00000 0.0 2.70099 26.47002
556 1 2 0.00000 0.0 12.32295 34.5794
557 1 3 0.00000 0.0 14.16735 36.58796
558 1 4 0.00000 0.0 13.05119 36.82022
559 1 2 0.00000 10.3502 1.97275 34.5794
560 1 3 0.00000 10.3502 3.81715 36.58796
561 1 4 0.00000 10.3502 2.70099 36.82022
562 1 2 0.00000 10.3502 12.32295 24.2292
563 1 3 0.00000 10.3502 14.16735 26.23776
564 1 4 0.00000 10.3502 13.05119 26.47002
565 1 2 0.00000 0.0 1.97275 37.872
566 1 3 0.00000 0.0 3.81715 35.86344
567 1 4 0.00000 0.0 2.70099 35.63118
568 1 2 0.00000 0.0 12.32295 27.5218
569 1 3 0.00000 0.0 14.16735 25.51324
570 1 4 0.00000 0.0 13.05119 25.28098
571 1 2 0.00000 10.3502 1.97275 27.5218
572 1 3 0.00000 10.3502 3.81715 25.51324
573 1 4 0.00000 10.3502 2.70099 25.28098
574 1 2 0.00000 10.3502 12.32295 37.872
575 1 3 0.00000 10.3502 14.16735 35.86344
576 1 4 0.00000 10.3502 13.05119 35.63118
577 1 2 0.00000 0.0 18.72765 37.872
578 1 3 0.00000 0.0 16.88325 35.86344
579 1 4 0.00000 0.0 17.99941 35.63118
580 1 2 0.00000 0.0 8.37745 27.5218
581 1 3 0.00000 0.0 6.53305 25.51324
582 1 4 0.00000 0.0 7.64921 25.28098
583 1 2 0.00000 10.3502 18.72765 27.5218
584 1 3 0.00000 10.3502 16.88325 25.51324
585 1 4 0.00000 10.3502 17.99941 25.28098
586 1 2 0.00000 10.3502 8.37745 37.872
587 1 3 0.00000 10.3502 6.53305 35.86344
588 1 4 0.00000 10.3502 7.64921 35.63118
589 1 2 0.00000 0.0 18.72765 24.2292
590 1 3 0.00000 0.0 16.88325 26.23776
591 1 4 0.00000 0.0 17.99941 26.47002
592 1 2 0.00000 0.0 8.37745 34.5794
593 1 3 0.00000 0.0 6.53305 36.58796
594 1 4 0.00000 0.0 7.64921 36.82022
595 1 2 0.00000 10.3502 18.72765 34.5794
596 1 3 0.00000 10.3502 16.88325 36.58796
597 1 4 0.00000 10.3502 17.99941 36.82022
598 1 2 0.00000 10.3502 8.37745 24.2292
599 1 3 0.00000 10.3502 6.53305 26.23776
600 1 4 0.00000 10.3502 7.64921 26.47002
601 1 2 0.00000 0.0 3.5288 39.42805
602 1 3 0.00000 0.0 5.53736 37.58365
603 1 4 0.00000 0.0 5.76962 38.69981
604 1 2 0.00000 0.0 13.879 29.07785
605 1 3 0.00000 0.0 15.88756 27.23345
606 1 4 0.00000 0.0 16.11982 28.34961
607 1 2 0.00000 10.3502 3.5288 29.07785
608 1 3 0.00000 10.3502 5.53736 27.23345
609 1 4 0.00000 10.3502 5.76962 28.34961
610 1 2 0.00000 10.3502 13.879 39.42805
611 1 3 0.00000 10.3502 15.88756 37.58365
612 1 4 0.00000 10.3502 16.11982 38.69981
613 1 2 0.00000 0.0 17.1716 39.42805
614 1 3 0.00000 0.0 15.16304 37.58365
615 1 4 0.00000 0.0 14.93078 38.69981
616 1 2 0.00000 0.0 6.8214 29.07785
617 1 3 0.00000 0.0 4.81284 27.23345
618 1 4 0.00000 0.0 4.58058 28.34961
619 1 2 0.00000 10.3502 17.1716 29.07785
620 1 3 0.00000 10.3502 15.16304 27.23345
621 1 4 0.00000 10.3502 14.93078 28.34961
622 1 2 0.00000 10.3502 6.8214 39.42805
623 1 3 0.00000 10.3502 4.81284 37.58365
624 1 4 0.00000 10.3502 4.58058 38.69981
625 1 2 0.00000 0.0 17.1716 22.67315
626 1 3 0.00000 0.0 15.16304 24.51755
627 1 4 0.00000 0.0 14.93078 23.40139
628 1 2 0.00000 0.0 6.8214 33.02335
629 1 3 0.00000 0.0 4.81284 34.86775
630 1 4 0.00000 0.0 4.58058 33.75159
631 1 2 0.00000 10.3502 17.1716 33.02335
632 1 3 0.00000 10.3502 15.16304 34.86775
633 1 4 0.00000 10.3502 14.93078 33.75159
634 1 2 0.00000 10.3502 6.8214 22.67315
635 1 3 0.00000 10.3502 4.81284 24.51755
636 1 4 0.00000 10.3502 4.58058 23.40139
637 1 2 0.00000 0.0 3.5288 22.67315
638 1 3 0.00000 0.0 5.53736 24.51755
639 1 4 0.00000 0.0 5.76962 23.40139
640 1 2 0.00000 0.0 13.879 33.02335
641 1 3 0.00000 0.0 15.88756 34.86775
642 1 4 0.00000 0.0 16.11982 33.75159
643 1 2 0.00000 10.3502 3.5288 33.02335
644 1 3 0.00000 10.3502 5.53736 34.86775
645 1 4 0.00000 10.3502 5.76962 33.75159
646 1 2 0.00000 10.3502 13.879 22.67315
647 1 3 0.00000 10.3502 15.88756 24.51755
648 1 4 0.00000 10.3502 16.11982 23.40139
649 1 2 0.00000 3.5288 1.97275 20.7004
650 1 3 0.00000 5.53736 3.81715 20.7004
651 1 4 0.00000 5.76962 2.70099 20.7004
652 1 2 0.00000 3.5288 12.32295 31.0506
653 1 3 0.00000 5.53736 14.16735 31.0506
654 1 4 0.00000 5.76962 13.05119 31.0506
655 1 2 0.00000 13.879 1.97275 31.0506
656 1 3 0.00000 15.88756 3.81715 31.0506
657 1 4 0.00000 16.11982 2.70099 31.0506
658 1 2 0.00000 13.879 12.32295 20.7004
659 1 3 0.00000 15.88756 14.16735 20.7004
660 1 4 0.00000 16.11982 13.05119 20.7004
661 1 2 0.00000 17.1716 1.97275 20.7004
662 1 3 0.00000 15.16304 3.81715 20.7004
663 1 4 0.00000 14.93078 2.70099 20.7004
664 1 2 0.00000 17.1716 12.32295 31.0506
665 1 3 0.00000 15.16304 14.16735 31.0506
666 1 4 0.00000 14.93078 13.05119 31.0506
667 1 2 0.00000 6.8214 1.97275 31.0506
668 1 3 0.00000 4.81284 3.81715 31.0506
669 1 4 0.00000 4.58058 2.70099 31.0506
670 1 2 0.00000 6.8214 12.32295 20.7004
671 1 3 0.00000 4.81284 14.16735 20.7004
672 1 4 0.00000 4.58058 13.05119 20.7004
673 1 2 0.00000 17.1716 18.72765 20.7004
674 1 3 0.00000 15.16304 16.88325 20.7004
675 1 4 0.00000 14.93078 17.99941 20.7004
676 1 2 0.00000 17.1716 8.37745 31.0506
677 1 3 0.00000 15.16304 6.53305 31.0506
678 1 4 0.00000 14.93078 7.64921 31.0506
679 1 2 0.00000 6.8214 18.72765 31.0506
680 1 3 0.00000 4.81284 16.88325 31.0506
681 1 4 0.00000 4.58058 17.99941 31.0506
682 1 2 0.00000 6.8214 8.37745 20.7004
683 1 3 0.00000 4.81284 6.53305 20.7004
684 1 4 0.00000 4.58058 7.64921 20.7004
685 1 2 0.00000 3.5288 18.72765 20.7004
686 1 3 0.00000 5.53736 16.88325 20.7004
687 1 4 0.00000 5.76962 17.99941 20.7004
688 1 2 0.00000 3.5288 8.37745 31.0506
689 1 3 0.00000 5.53736 6.53305 31.0506
690 1 4 0.00000 5.76962 7.64921 31.0506
691 1 2 0.00000 13.879 18.72765 31.0506
692 1 3 0.00000 15.88756 16.88325 31.0506
693 1 4 0.00000 16.11982 17.99941 31.0506
694 1 2 0.00000 13.879 8.37745 20.7004
695 1 3 0.00000 15.88756 6.53305 20.7004
696 1 4 0.00000 16.11982 7.64921 20.7004
697 1 2 0.00000 1.97275 0.0 37.872
698 1 3 0.00000 3.81715 0.0 35.86344
699 1 4 0.00000 2.70099 0.0 35.63118
700 1 2 0.00000 1.97275 10.3502 27.5218
701 1 3 0.00000 3.81715 10.3502 25.51324
702 1 4 0.00000 2.70099 10.3502 25.28098
703 1 2 0.00000 12.32295 0.0 27.5218
704 1 3 0.00000 14.16735 0.0 25.51324
705 1 4 0.00000 13.05119 0.0 25.28098
706 1 2 0.00000 12.32295 10.3502 37.872
707 1 3 0.00000 14.16735 10.3502 35.86344
708 1 4 0.00000 13.05119 10.3502 35.63118
709 1 2 0.00000 1.97275 0.0 24.2292
710 1 3 0.00000 3.81715 0.0 26.23776
711 1 4 0.00000 2.70099 0.0 26.47002
712 1 2 0.00000 1.97275 10.3502 34.5794
713 1 3 0.00000 3.81715 10.3502 36.58796
714 1 4 0.00000 2.70099 10.3502 36.82022
715 1 2 0.00000 12.32295 0.0 34.5794
716 1 3 0.00000 14.16735 0.0 36.58796
717 1 4 0.00000 13.05119 0.0 36.82022
718 1 2 0.00000 12.32295 10.3502 24.2292
719 1 3 0.00000 14.16735 10.3502 26.23776
720 1 4 0.00000 13.05119 10.3502 26.47002
721 1 2 0.00000 18.72765 0.0 24.2292
722 1 3 0.00000 16.88325 0.0 26.23776
723 1 4 0.00000 17.99941 0.0 26.47002
724 1 2 0.00000 18.72765 10.3502 34.5794
725 1 3 0.00000 16.88325 10.3502 36.58796
726 1 4 0.00000 17.99941 10.3502 36.82022
727 1 2 0.00000 8.37745 0.0 34.5794
728 1 3 0.00000 6.53305 0.0 36.58796
729 1 4 0.00000 7.64921 0.0 36.82022
730 1 2 0.00000 8.37745 10.3502 24.2292
731 1 3 0.00000 6.53305 10.3502 26.23776
732 1 4 0.00000 7.64921 10.3502 26.47002
733 1 2 0.00000 18.72765 0.0 37.872
734 1 3 0.00000 16.88325 0.0 35.86344
735 1 4 0.00000 17.99941 0.0 35.63118
736 1 2 0.00000 18.72765 10.3502 27.5218
737 1 3 0.00000 16.88325 10.3502 25.51324
738 1 4 0.00000 17.99941 10.3502 25.28098
739 1 2 0.00000 8.37745 0.0 27.5218
740 1 3 0.00000 6.53305 0.0 25.51324
741 1 4 0.00000 7.64921 0.0 25.28098
742 1 2 0.00000 8.37745 10.3502 37.872
743 1 3 0.00000 6.53305 10.3502 35.86344
744 1 4 0.00000 7.64921 10.3502 35.63118
745 1 5 0.00000 1.16129 9.18891 29.88931
746 1 5 0.00000 11.51149 19.53911 29.88931
747 1 5 0.00000 11.51149 9.18891 40.23951
748 1 5 0.00000 9.18891 1.16129 29.88931
749 1 5 0.00000 9.18891 11.51149 40.23951
750 1 5 0.00000 19.53911 19.53911 21.86169
751 1 5 0.00000 19.53911 9.18891 32.21189
752 1 5 0.00000 1.16129 1.16129 21.86169
753 1 5 0.00000 11.51149 11.51149 21.86169
754 1 5 0.00000 19.53911 1.16129 21.86169
755 1 5 0.00000 19.53911 11.51149 32.21189
756 1 5 0.00000 9.18891 1.16129 32.21189
757 1 5 0.00000 9.18891 11.51149 21.86169
758 1 5 0.00000 1.16129 19.53911 21.86169