LAMMPS Description

     5452  atoms
     6731  bonds
     14995  angles
     13077  dihedrals
     8832  impropers

     8  atom types
     10  bond types
     16  angle types
     5  dihedral types
     1  improper types

  0.0 53.792000 xlo xhi
  0.0 53.792000 ylo yhi
  0.0 53.792000 zlo zhi

Masses

1 91.224000000  # Zr3+4
2 15.999400000  # O_2
3 15.999400000  # O_R
4 12.010700000  # C_R
5 1.007940000  # H_
6 12.010700000  # C_3
7 15.999400000  # O_3
8 1.007940000  # H_

Atoms  # full

1 1 1 0.00000 2.47551 0.0 0.0
2 1 1 0.00000 24.42049 0.0 0.0
3 1 1 0.00000 0.0 2.47551 0.0
4 1 1 0.00000 0.0 24.42049 0.0
5 1 1 0.00000 0.0 0.0 2.47551
6 1 1 0.00000 0.0 0.0 24.42049
7 1 1 0.00000 2.47551 13.448 13.448
8 1 1 0.00000 24.42049 13.448 13.448
9 1 1 0.00000 0.0 15.92351 13.448
10 1 1 0.00000 0.0 10.97249 13.448
11 1 1 0.00000 0.0 13.448 15.92351
12 1 1 0.00000 0.0 13.448 10.97249
13 1 1 0.00000 15.92351 0.0 13.448
14 1 1 0.00000 10.97249 0.0 13.448
15 1 1 0.00000 13.448 2.47551 13.448
16 1 1 0.00000 13.448 24.42049 13.448
17 1 1 0.00000 13.448 0.0 15.92351
18 1 1 0.00000 13.448 0.0 10.97249
19 1 1 0.00000 15.92351 13.448 0.0
20 1 1 0.00000 10.97249 13.448 0.0
21 1 1 0.00000 13.448 15.92351 0.0
22 1 1 0.00000 13.448 10.97249 0.0
23 1 1 0.00000 13.448 13.448 2.47551
24 1 1 0.00000 13.448 13.448 24.42049
25 1 2 0.00000 1.22108 1.22108 1.22108
26 1 2 0.00000 25.67492 25.67492 25.67492
27 1 2 0.00000 25.67492 25.67492 1.22108
28 1 2 0.00000 1.22108 1.22108 25.67492
29 1 2 0.00000 25.67492 1.22108 25.67492
30 1 2 0.00000 1.22108 25.67492 1.22108
31 1 2 0.00000 1.22108 25.67492 25.67492
32 1 2 0.00000 25.67492 1.22108 1.22108
33 1 2 0.00000 1.22108 14.66908 14.66908
34 1 2 0.00000 25.67492 12.22692 12.22692
35 1 2 0.00000 25.67492 12.22692 14.66908
36 1 2 0.00000 1.22108 14.66908 12.22692
37 1 2 0.00000 25.67492 14.66908 12.22692
38 1 2 0.00000 1.22108 12.22692 14.66908
39 1 2 0.00000 1.22108 12.22692 12.22692
40 1 2 0.00000 25.67492 14.66908 14.66908
41 1 2 0.00000 14.66908 1.22108 14.66908
42 1 2 0.00000 12.22692 25.67492 12.22692
43 1 2 0.00000 12.22692 25.67492 14.66908
44 1 2 0.00000 14.66908 1.22108 12.22692
45 1 2 0.00000 12.22692 1.22108 12.22692
46 1 2 0.00000 14.66908 25.67492 14.66908
47 1 2 0.00000 14.66908 25.67492 12.22692
48 1 2 0.00000 12.22692 1.22108 14.66908
49 1 2 0.00000 14.66908 14.66908 1.22108
50 1 2 0.00000 12.22692 12.22692 25.67492
51 1 2 0.00000 12.22692 12.22692 1.22108
52 1 2 0.00000 14.66908 14.66908 25.67492
53 1 2 0.00000 12.22692 14.66908 25.67492
54 1 2 0.00000 14.66908 12.22692 1.22108
55 1 2 0.00000 14.66908 12.22692 25.67492
56 1 2 0.00000 12.22692 14.66908 1.22108
57 1 3 0.00000 3.56641 0.0 1.93382
58 1 3 0.00000 23.32959 0.0 24.96218
59 1 3 0.00000 23.32959 0.0 1.93382
60 1 3 0.00000 3.56641 0.0 24.96218
61 1 3 0.00000 1.93382 3.56641 0.0
62 1 3 0.00000 24.96218 23.32959 0.0
63 1 3 0.00000 1.93382 23.32959 0.0
64 1 3 0.00000 24.96218 3.56641 0.0
65 1 3 0.00000 0.0 1.93382 3.56641
66 1 3 0.00000 0.0 24.96218 23.32959
67 1 3 0.00000 0.0 1.93382 23.32959
68 1 3 0.00000 0.0 24.96218 3.56641
69 1 3 0.00000 0.0 3.56641 24.96218
70 1 3 0.00000 0.0 23.32959 1.93382
71 1 3 0.00000 0.0 23.32959 24.96218
72 1 3 0.00000 0.0 3.56641 1.93382
73 1 3 0.00000 3.56641 1.93382 0.0
74 1 3 0.00000 23.32959 24.96218 0.0
75 1 3 0.00000 23.32959 1.93382 0.0
76 1 3 0.00000 3.56641 24.96218 0.0
77 1 3 0.00000 1.93382 0.0 23.32959
78 1 3 0.00000 24.96218 0.0 3.56641
79 1 3 0.00000 1.93382 0.0 3.56641
80 1 3 0.00000 24.96218 0.0 23.32959
81 1 3 0.00000 3.56641 13.448 15.38182
82 1 3 0.00000 23.32959 13.448 11.51418
83 1 3 0.00000 23.32959 13.448 15.38182
84 1 3 0.00000 3.56641 13.448 11.51418
85 1 3 0.00000 1.93382 17.01441 13.448
86 1 3 0.00000 24.96218 9.88159 13.448
87 1 3 0.00000 1.93382 9.88159 13.448
88 1 3 0.00000 24.96218 17.01441 13.448
89 1 3 0.00000 0.0 15.38182 17.01441
90 1 3 0.00000 0.0 11.51418 9.88159
91 1 3 0.00000 0.0 15.38182 9.88159
92 1 3 0.00000 0.0 11.51418 17.01441
93 1 3 0.00000 0.0 17.01441 11.51418
94 1 3 0.00000 0.0 9.88159 15.38182
95 1 3 0.00000 0.0 9.88159 11.51418
96 1 3 0.00000 0.0 17.01441 15.38182
97 1 3 0.00000 3.56641 15.38182 13.448
98 1 3 0.00000 23.32959 11.51418 13.448
99 1 3 0.00000 23.32959 15.38182 13.448
100 1 3 0.00000 3.56641 11.51418 13.448
101 1 3 0.00000 1.93382 13.448 9.88159
102 1 3 0.00000 24.96218 13.448 17.01441
103 1 3 0.00000 1.93382 13.448 17.01441
104 1 3 0.00000 24.96218 13.448 9.88159
105 1 3 0.00000 17.01441 0.0 15.38182
106 1 3 0.00000 9.88159 0.0 11.51418
107 1 3 0.00000 9.88159 0.0 15.38182
108 1 3 0.00000 17.01441 0.0 11.51418
109 1 3 0.00000 15.38182 3.56641 13.448
110 1 3 0.00000 11.51418 23.32959 13.448
111 1 3 0.00000 15.38182 23.32959 13.448
112 1 3 0.00000 11.51418 3.56641 13.448
113 1 3 0.00000 13.448 1.93382 17.01441
114 1 3 0.00000 13.448 24.96218 9.88159
115 1 3 0.00000 13.448 1.93382 9.88159
116 1 3 0.00000 13.448 24.96218 17.01441
117 1 3 0.00000 13.448 3.56641 11.51418
118 1 3 0.00000 13.448 23.32959 15.38182
119 1 3 0.00000 13.448 23.32959 11.51418
120 1 3 0.00000 13.448 3.56641 15.38182
121 1 3 0.00000 17.01441 1.93382 13.448
122 1 3 0.00000 9.88159 24.96218 13.448
123 1 3 0.00000 9.88159 1.93382 13.448
124 1 3 0.00000 17.01441 24.96218 13.448
125 1 3 0.00000 15.38182 0.0 9.88159
126 1 3 0.00000 11.51418 0.0 17.01441
127 1 3 0.00000 15.38182 0.0 17.01441
128 1 3 0.00000 11.51418 0.0 9.88159
129 1 3 0.00000 17.01441 13.448 1.93382
130 1 3 0.00000 9.88159 13.448 24.96218
131 1 3 0.00000 9.88159 13.448 1.93382
132 1 3 0.00000 17.01441 13.448 24.96218
133 1 3 0.00000 15.38182 17.01441 0.0
134 1 3 0.00000 11.51418 9.88159 0.0
135 1 3 0.00000 15.38182 9.88159 0.0
136 1 3 0.00000 11.51418 17.01441 0.0
137 1 3 0.00000 13.448 15.38182 3.56641
138 1 3 0.00000 13.448 11.51418 23.32959
139 1 3 0.00000 13.448 15.38182 23.32959
140 1 3 0.00000 13.448 11.51418 3.56641
141 1 3 0.00000 13.448 17.01441 24.96218
142 1 3 0.00000 13.448 9.88159 1.93382
143 1 3 0.00000 13.448 9.88159 24.96218
144 1 3 0.00000 13.448 17.01441 1.93382
145 1 3 0.00000 17.01441 15.38182 0.0
146 1 3 0.00000 9.88159 11.51418 0.0
147 1 3 0.00000 9.88159 15.38182 0.0
148 1 3 0.00000 17.01441 11.51418 0.0
149 1 3 0.00000 15.38182 13.448 23.32959
150 1 3 0.00000 11.51418 13.448 3.56641
151 1 3 0.00000 15.38182 13.448 3.56641
152 1 3 0.00000 11.51418 13.448 23.32959
153 1 4 0.00000 3.15221 0.0 3.15221
154 1 4 0.00000 23.74379 0.0 23.74379
155 1 4 0.00000 23.74379 0.0 3.15221
156 1 4 0.00000 3.15221 0.0 23.74379
157 1 4 0.00000 3.15221 3.15221 0.0
158 1 4 0.00000 23.74379 23.74379 0.0
159 1 4 0.00000 3.15221 23.74379 0.0
160 1 4 0.00000 23.74379 3.15221 0.0
161 1 4 0.00000 0.0 3.15221 3.15221
162 1 4 0.00000 0.0 23.74379 23.74379
163 1 4 0.00000 0.0 3.15221 23.74379
164 1 4 0.00000 0.0 23.74379 3.15221
165 1 4 0.00000 3.15221 13.448 16.60021
166 1 4 0.00000 23.74379 13.448 10.29579
167 1 4 0.00000 23.74379 13.448 16.60021
168 1 4 0.00000 3.15221 13.448 10.29579
169 1 4 0.00000 3.15221 16.60021 13.448
170 1 4 0.00000 23.74379 10.29579 13.448
171 1 4 0.00000 3.15221 10.29579 13.448
172 1 4 0.00000 23.74379 16.60021 13.448
173 1 4 0.00000 0.0 16.60021 16.60021
174 1 4 0.00000 0.0 10.29579 10.29579
175 1 4 0.00000 0.0 16.60021 10.29579
176 1 4 0.00000 0.0 10.29579 16.60021
177 1 4 0.00000 16.60021 0.0 16.60021
178 1 4 0.00000 10.29579 0.0 10.29579
179 1 4 0.00000 10.29579 0.0 16.60021
180 1 4 0.00000 16.60021 0.0 10.29579
181 1 4 0.00000 16.60021 3.15221 13.448
182 1 4 0.00000 10.29579 23.74379 13.448
183 1 4 0.00000 16.60021 23.74379 13.448
184 1 4 0.00000 10.29579 3.15221 13.448
185 1 4 0.00000 13.448 3.15221 16.60021
186 1 4 0.00000 13.448 23.74379 10.29579
187 1 4 0.00000 13.448 3.15221 10.29579
188 1 4 0.00000 13.448 23.74379 16.60021
189 1 4 0.00000 16.60021 13.448 3.15221
190 1 4 0.00000 10.29579 13.448 23.74379
191 1 4 0.00000 10.29579 13.448 3.15221
192 1 4 0.00000 16.60021 13.448 23.74379
193 1 4 0.00000 16.60021 16.60021 0.0
194 1 4 0.00000 10.29579 10.29579 0.0
195 1 4 0.00000 16.60021 10.29579 0.0
196 1 4 0.00000 10.29579 16.60021 0.0
197 1 4 0.00000 13.448 16.60021 3.15221
198 1 4 0.00000 13.448 10.29579 23.74379
199 1 4 0.00000 13.448 16.60021 23.74379
200 1 4 0.00000 13.448 10.29579 3.15221
201 1 4 0.00000 4.20922 0.0 4.20922
202 1 4 0.00000 22.68678 0.0 22.68678
203 1 4 0.00000 22.68678 0.0 4.20922
204 1 4 0.00000 4.20922 0.0 22.68678
205 1 4 0.00000 4.20922 4.20922 0.0
206 1 4 0.00000 22.68678 22.68678 0.0
207 1 4 0.00000 4.20922 22.68678 0.0
208 1 4 0.00000 22.68678 4.20922 0.0
209 1 4 0.00000 0.0 4.20922 4.20922
210 1 4 0.00000 0.0 22.68678 22.68678
211 1 4 0.00000 0.0 4.20922 22.68678
212 1 4 0.00000 0.0 22.68678 4.20922
213 1 4 0.00000 4.20922 13.448 17.65722
214 1 4 0.00000 22.68678 13.448 9.23878
215 1 4 0.00000 22.68678 13.448 17.65722
216 1 4 0.00000 4.20922 13.448 9.23878
217 1 4 0.00000 4.20922 17.65722 13.448
218 1 4 0.00000 22.68678 9.23878 13.448
219 1 4 0.00000 4.20922 9.23878 13.448
220 1 4 0.00000 22.68678 17.65722 13.448
221 1 4 0.00000 0.0 17.65722 17.65722
222 1 4 0.00000 0.0 9.23878 9.23878
223 1 4 0.00000 0.0 17.65722 9.23878
224 1 4 0.00000 0.0 9.23878 17.65722
225 1 4 0.00000 17.65722 0.0 17.65722
226 1 4 0.00000 9.23878 0.0 9.23878
227 1 4 0.00000 9.23878 0.0 17.65722
228 1 4 0.00000 17.65722 0.0 9.23878
229 1 4 0.00000 17.65722 4.20922 13.448
230 1 4 0.00000 9.23878 22.68678 13.448
231 1 4 0.00000 17.65722 22.68678 13.448
232 1 4 0.00000 9.23878 4.20922 13.448
233 1 4 0.00000 13.448 4.20922 17.65722
234 1 4 0.00000 13.448 22.68678 9.23878
235 1 4 0.00000 13.448 4.20922 9.23878
236 1 4 0.00000 13.448 22.68678 17.65722
237 1 4 0.00000 17.65722 13.448 4.20922
238 1 4 0.00000 9.23878 13.448 22.68678
239 1 4 0.00000 9.23878 13.448 4.20922
240 1 4 0.00000 17.65722 13.448 22.68678
241 1 4 0.00000 17.65722 17.65722 0.0
242 1 4 0.00000 9.23878 9.23878 0.0
243 1 4 0.00000 17.65722 9.23878 0.0
244 1 4 0.00000 9.23878 17.65722 0.0
245 1 4 0.00000 13.448 17.65722 4.20922
246 1 4 0.00000 13.448 9.23878 22.68678
247 1 4 0.00000 13.448 17.65722 22.68678
248 1 4 0.00000 13.448 9.23878 4.20922
249 1 4 0.00000 5.5352 0.0 3.89185
250 1 4 0.00000 21.3608 0.0 23.00415
251 1 4 0.00000 21.3608 0.0 3.89185
252 1 4 0.00000 5.5352 0.0 23.00415
253 1 4 0.00000 3.89185 5.5352 0.0
254 1 4 0.00000 23.00415 21.3608 0.0
255 1 4 0.00000 3.89185 21.3608 0.0
256 1 4 0.00000 23.00415 5.5352 0.0
257 1 4 0.00000 0.0 3.89185 5.5352
258 1 4 0.00000 0.0 23.00415 21.3608
259 1 4 0.00000 0.0 3.89185 21.3608
260 1 4 0.00000 0.0 23.00415 5.5352
261 1 4 0.00000 0.0 5.5352 23.00415
262 1 4 0.00000 0.0 21.3608 3.89185
263 1 4 0.00000 0.0 21.3608 23.00415
264 1 4 0.00000 0.0 5.5352 3.89185
265 1 4 0.00000 5.5352 3.89185 0.0
266 1 4 0.00000 21.3608 23.00415 0.0
267 1 4 0.00000 21.3608 3.89185 0.0
268 1 4 0.00000 5.5352 23.00415 0.0
269 1 4 0.00000 3.89185 0.0 21.3608
270 1 4 0.00000 23.00415 0.0 5.5352
271 1 4 0.00000 3.89185 0.0 5.5352
272 1 4 0.00000 23.00415 0.0 21.3608
273 1 4 0.00000 5.5352 13.448 17.33985
274 1 4 0.00000 21.3608 13.448 9.55615
275 1 4 0.00000 21.3608 13.448 17.33985
276 1 4 0.00000 5.5352 13.448 9.55615
277 1 4 0.00000 3.89185 18.9832 13.448
278 1 4 0.00000 23.00415 7.9128 13.448
279 1 4 0.00000 3.89185 7.9128 13.448
280 1 4 0.00000 23.00415 18.9832 13.448
281 1 4 0.00000 0.0 17.33985 18.9832
282 1 4 0.00000 0.0 9.55615 7.9128
283 1 4 0.00000 0.0 17.33985 7.9128
284 1 4 0.00000 0.0 9.55615 18.9832
285 1 4 0.00000 0.0 18.9832 9.55615
286 1 4 0.00000 0.0 7.9128 17.33985
287 1 4 0.00000 0.0 7.9128 9.55615
288 1 4 0.00000 0.0 18.9832 17.33985
289 1 4 0.00000 5.5352 17.33985 13.448
290 1 4 0.00000 21.3608 9.55615 13.448
291 1 4 0.00000 21.3608 17.33985 13.448
292 1 4 0.00000 5.5352 9.55615 13.448
293 1 4 0.00000 3.89185 13.448 7.9128
294 1 4 0.00000 23.00415 13.448 18.9832
295 1 4 0.00000 3.89185 13.448 18.9832
296 1 4 0.00000 23.00415 13.448 7.9128
297 1 4 0.00000 18.9832 0.0 17.33985
298 1 4 0.00000 7.9128 0.0 9.55615
299 1 4 0.00000 7.9128 0.0 17.33985
300 1 4 0.00000 18.9832 0.0 9.55615
301 1 4 0.00000 17.33985 5.5352 13.448
302 1 4 0.00000 9.55615 21.3608 13.448
303 1 4 0.00000 17.33985 21.3608 13.448
304 1 4 0.00000 9.55615 5.5352 13.448
305 1 4 0.00000 13.448 3.89185 18.9832
306 1 4 0.00000 13.448 23.00415 7.9128
307 1 4 0.00000 13.448 3.89185 7.9128
308 1 4 0.00000 13.448 23.00415 18.9832
309 1 4 0.00000 13.448 5.5352 9.55615
310 1 4 0.00000 13.448 21.3608 17.33985
311 1 4 0.00000 13.448 21.3608 9.55615
312 1 4 0.00000 13.448 5.5352 17.33985
313 1 4 0.00000 18.9832 3.89185 13.448
314 1 4 0.00000 7.9128 23.00415 13.448
315 1 4 0.00000 7.9128 3.89185 13.448
316 1 4 0.00000 18.9832 23.00415 13.448
317 1 4 0.00000 17.33985 0.0 7.9128
318 1 4 0.00000 9.55615 0.0 18.9832
319 1 4 0.00000 17.33985 0.0 18.9832
320 1 4 0.00000 9.55615 0.0 7.9128
321 1 4 0.00000 18.9832 13.448 3.89185
322 1 4 0.00000 7.9128 13.448 23.00415
323 1 4 0.00000 7.9128 13.448 3.89185
324 1 4 0.00000 18.9832 13.448 23.00415
325 1 4 0.00000 17.33985 18.9832 0.0
326 1 4 0.00000 9.55615 7.9128 0.0
327 1 4 0.00000 17.33985 7.9128 0.0
328 1 4 0.00000 9.55615 18.9832 0.0
329 1 4 0.00000 13.448 17.33985 5.5352
330 1 4 0.00000 13.448 9.55615 21.3608
331 1 4 0.00000 13.448 17.33985 21.3608
332 1 4 0.00000 13.448 9.55615 5.5352
333 1 4 0.00000 13.448 18.9832 23.00415
334 1 4 0.00000 13.448 7.9128 3.89185
335 1 4 0.00000 13.448 7.9128 23.00415
336 1 4 0.00000 13.448 18.9832 3.89185
337 1 4 0.00000 18.9832 17.33985 0.0
338 1 4 0.00000 7.9128 9.55615 0.0
339 1 4 0.00000 7.9128 17.33985 0.0
340 1 4 0.00000 18.9832 9.55615 0.0
341 1 4 0.00000 17.33985 13.448 21.3608
342 1 4 0.00000 9.55615 13.448 5.5352
343 1 4 0.00000 17.33985 13.448 5.5352
344 1 4 0.00000 9.55615 13.448 21.3608
345 1 5 0.00000 5.77995 0.0 2.99621
346 1 5 0.00000 21.11605 0.0 23.89979
347 1 5 0.00000 21.11605 0.0 2.99621
348 1 5 0.00000 5.77995 0.0 23.89979
349 1 5 0.00000 2.99621 5.77995 0.0
350 1 5 0.00000 23.89979 21.11605 0.0
351 1 5 0.00000 2.99621 21.11605 0.0
352 1 5 0.00000 23.89979 5.77995 0.0
353 1 5 0.00000 0.0 2.99621 5.77995
354 1 5 0.00000 0.0 23.89979 21.11605
355 1 5 0.00000 0.0 2.99621 21.11605
356 1 5 0.00000 0.0 23.89979 5.77995
357 1 5 0.00000 0.0 5.77995 23.89979
358 1 5 0.00000 0.0 21.11605 2.99621
359 1 5 0.00000 0.0 21.11605 23.89979
360 1 5 0.00000 0.0 5.77995 2.99621
361 1 5 0.00000 5.77995 2.99621 0.0
362 1 5 0.00000 21.11605 23.89979 0.0
363 1 5 0.00000 21.11605 2.99621 0.0
364 1 5 0.00000 5.77995 23.89979 0.0
365 1 5 0.00000 2.99621 0.0 21.11605
366 1 5 0.00000 23.89979 0.0 5.77995
367 1 5 0.00000 2.99621 0.0 5.77995
368 1 5 0.00000 23.89979 0.0 21.11605
369 1 5 0.00000 5.77995 13.448 16.44421
370 1 5 0.00000 21.11605 13.448 10.45179
371 1 5 0.00000 21.11605 13.448 16.44421
372 1 5 0.00000 5.77995 13.448 10.45179
373 1 5 0.00000 2.99621 19.22795 13.448
374 1 5 0.00000 23.89979 7.66805 13.448
375 1 5 0.00000 2.99621 7.66805 13.448
376 1 5 0.00000 23.89979 19.22795 13.448
377 1 5 0.00000 0.0 16.44421 19.22795
378 1 5 0.00000 0.0 10.45179 7.66805
379 1 5 0.00000 0.0 16.44421 7.66805
380 1 5 0.00000 0.0 10.45179 19.22795
381 1 5 0.00000 0.0 19.22795 10.45179
382 1 5 0.00000 0.0 7.66805 16.44421
383 1 5 0.00000 0.0 7.66805 10.45179
384 1 5 0.00000 0.0 19.22795 16.44421
385 1 5 0.00000 5.77995 16.44421 13.448
386 1 5 0.00000 21.11605 10.45179 13.448
387 1 5 0.00000 21.11605 16.44421 13.448
388 1 5 0.00000 5.77995 10.45179 13.448
389 1 5 0.00000 2.99621 13.448 7.66805
390 1 5 0.00000 23.89979 13.448 19.22795
391 1 5 0.00000 2.99621 13.448 19.22795
392 1 5 0.00000 23.89979 13.448 7.66805
393 1 5 0.00000 19.22795 0.0 16.44421
394 1 5 0.00000 7.66805 0.0 10.45179
395 1 5 0.00000 7.66805 0.0 16.44421
396 1 5 0.00000 19.22795 0.0 10.45179
397 1 5 0.00000 16.44421 5.77995 13.448
398 1 5 0.00000 10.45179 21.11605 13.448
399 1 5 0.00000 16.44421 21.11605 13.448
400 1 5 0.00000 10.45179 5.77995 13.448
401 1 5 0.00000 13.448 2.99621 19.22795
402 1 5 0.00000 13.448 23.89979 7.66805
403 1 5 0.00000 13.448 2.99621 7.66805
404 1 5 0.00000 13.448 23.89979 19.22795
405 1 5 0.00000 13.448 5.77995 10.45179
406 1 5 0.00000 13.448 21.11605 16.44421
407 1 5 0.00000 13.448 21.11605 10.45179
408 1 5 0.00000 13.448 5.77995 16.44421
409 1 5 0.00000 19.22795 2.99621 13.448
410 1 5 0.00000 7.66805 23.89979 13.448
411 1 5 0.00000 7.66805 2.99621 13.448
412 1 5 0.00000 19.22795 23.89979 13.448
413 1 5 0.00000 16.44421 0.0 7.66805
414 1 5 0.00000 10.45179 0.0 19.22795
415 1 5 0.00000 16.44421 0.0 19.22795
416 1 5 0.00000 10.45179 0.0 7.66805
417 1 5 0.00000 19.22795 13.448 2.99621
418 1 5 0.00000 7.66805 13.448 23.89979
419 1 5 0.00000 7.66805 13.448 2.99621
420 1 5 0.00000 19.22795 13.448 23.89979
421 1 5 0.00000 16.44421 19.22795 0.0
422 1 5 0.00000 10.45179 7.66805 0.0
423 1 5 0.00000 16.44421 7.66805 0.0
424 1 5 0.00000 10.45179 19.22795 0.0
425 1 5 0.00000 13.448 16.44421 5.77995
426 1 5 0.00000 13.448 10.45179 21.11605
427 1 5 0.00000 13.448 16.44421 21.11605
428 1 5 0.00000 13.448 10.45179 5.77995
429 1 5 0.00000 13.448 19.22795 23.89979
430 1 5 0.00000 13.448 7.66805 2.99621
431 1 5 0.00000 13.448 7.66805 23.89979
432 1 5 0.00000 13.448 19.22795 2.99621
433 1 5 0.00000 19.22795 16.44421 0.0
434 1 5 0.00000 7.66805 10.45179 0.0
435 1 5 0.00000 7.66805 16.44421 0.0
436 1 5 0.00000 19.22795 10.45179 0.0
437 1 5 0.00000 16.44421 13.448 21.11605
438 1 5 0.00000 10.45179 13.448 5.77995
439 1 5 0.00000 16.44421 13.448 5.77995
440 1 5 0.00000 10.45179 13.448 21.11605
441 1 4 0.00000 6.50883 0.0 4.82783
442 1 4 0.00000 20.38717 0.0 22.06817
443 1 4 0.00000 20.38717 0.0 4.82783
444 1 4 0.00000 6.50883 0.0 22.06817
445 1 4 0.00000 4.82783 6.50883 0.0
446 1 4 0.00000 22.06817 20.38717 0.0
447 1 4 0.00000 4.82783 20.38717 0.0
448 1 4 0.00000 22.06817 6.50883 0.0
449 1 4 0.00000 0.0 4.82783 6.50883
450 1 4 0.00000 0.0 22.06817 20.38717
451 1 4 0.00000 0.0 4.82783 20.38717
452 1 4 0.00000 0.0 22.06817 6.50883
453 1 4 0.00000 0.0 6.50883 22.06817
454 1 4 0.00000 0.0 20.38717 4.82783
455 1 4 0.00000 0.0 20.38717 22.06817
456 1 4 0.00000 0.0 6.50883 4.82783
457 1 4 0.00000 6.50883 4.82783 0.0
458 1 4 0.00000 20.38717 22.06817 0.0
459 1 4 0.00000 20.38717 4.82783 0.0
460 1 4 0.00000 6.50883 22.06817 0.0
461 1 4 0.00000 4.82783 0.0 20.38717
462 1 4 0.00000 22.06817 0.0 6.50883
463 1 4 0.00000 4.82783 0.0 6.50883
464 1 4 0.00000 22.06817 0.0 20.38717
465 1 4 0.00000 6.50883 13.448 18.27583
466 1 4 0.00000 20.38717 13.448 8.62017
467 1 4 0.00000 20.38717 13.448 18.27583
468 1 4 0.00000 6.50883 13.448 8.62017
469 1 4 0.00000 4.82783 19.95683 13.448
470 1 4 0.00000 22.06817 6.93917 13.448
471 1 4 0.00000 4.82783 6.93917 13.448
472 1 4 0.00000 22.06817 19.95683 13.448
473 1 4 0.00000 0.0 18.27583 19.95683
474 1 4 0.00000 0.0 8.62017 6.93917
475 1 4 0.00000 0.0 18.27583 6.93917
476 1 4 0.00000 0.0 8.62017 19.95683
477 1 4 0.00000 0.0 19.95683 8.62017
478 1 4 0.00000 0.0 6.93917 18.27583
479 1 4 0.00000 0.0 6.93917 8.62017
480 1 4 0.00000 0.0 19.95683 18.27583
481 1 4 0.00000 6.50883 18.27583 13.448
482 1 4 0.00000 20.38717 8.62017 13.448
483 1 4 0.00000 20.38717 18.27583 13.448
484 1 4 0.00000 6.50883 8.62017 13.448
485 1 4 0.00000 4.82783 13.448 6.93917
486 1 4 0.00000 22.06817 13.448 19.95683
487 1 4 0.00000 4.82783 13.448 19.95683
488 1 4 0.00000 22.06817 13.448 6.93917
489 1 4 0.00000 19.95683 0.0 18.27583
490 1 4 0.00000 6.93917 0.0 8.62017
491 1 4 0.00000 6.93917 0.0 18.27583
492 1 4 0.00000 19.95683 0.0 8.62017
493 1 4 0.00000 18.27583 6.50883 13.448
494 1 4 0.00000 8.62017 20.38717 13.448
495 1 4 0.00000 18.27583 20.38717 13.448
496 1 4 0.00000 8.62017 6.50883 13.448
497 1 4 0.00000 13.448 4.82783 19.95683
498 1 4 0.00000 13.448 22.06817 6.93917
499 1 4 0.00000 13.448 4.82783 6.93917
500 1 4 0.00000 13.448 22.06817 19.95683
501 1 4 0.00000 13.448 6.50883 8.62017
502 1 4 0.00000 13.448 20.38717 18.27583
503 1 4 0.00000 13.448 20.38717 8.62017
504 1 4 0.00000 13.448 6.50883 18.27583
505 1 4 0.00000 19.95683 4.82783 13.448
506 1 4 0.00000 6.93917 22.06817 13.448
507 1 4 0.00000 6.93917 4.82783 13.448
508 1 4 0.00000 19.95683 22.06817 13.448
509 1 4 0.00000 18.27583 0.0 6.93917
510 1 4 0.00000 8.62017 0.0 19.95683
511 1 4 0.00000 18.27583 0.0 19.95683
512 1 4 0.00000 8.62017 0.0 6.93917
513 1 4 0.00000 19.95683 13.448 4.82783
514 1 4 0.00000 6.93917 13.448 22.06817
515 1 4 0.00000 6.93917 13.448 4.82783
516 1 4 0.00000 19.95683 13.448 22.06817
517 1 4 0.00000 18.27583 19.95683 0.0
518 1 4 0.00000 8.62017 6.93917 0.0
519 1 4 0.00000 18.27583 6.93917 0.0
520 1 4 0.00000 8.62017 19.95683 0.0
521 1 4 0.00000 13.448 18.27583 6.50883
522 1 4 0.00000 13.448 8.62017 20.38717
523 1 4 0.00000 13.448 18.27583 20.38717
524 1 4 0.00000 13.448 8.62017 6.50883
525 1 4 0.00000 13.448 19.95683 22.06817
526 1 4 0.00000 13.448 6.93917 4.82783
527 1 4 0.00000 13.448 6.93917 22.06817
528 1 4 0.00000 13.448 19.95683 4.82783
529 1 4 0.00000 19.95683 18.27583 0.0
530 1 4 0.00000 6.93917 8.62017 0.0
531 1 4 0.00000 6.93917 18.27583 0.0
532 1 4 0.00000 19.95683 8.62017 0.0
533 1 4 0.00000 18.27583 13.448 20.38717
534 1 4 0.00000 8.62017 13.448 6.50883
535 1 4 0.00000 18.27583 13.448 6.50883
536 1 4 0.00000 8.62017 13.448 20.38717
537 1 5 0.00000 7.39909 0.0 4.55887
538 1 5 0.00000 19.49691 0.0 22.33713
539 1 5 0.00000 19.49691 0.0 4.55887
540 1 5 0.00000 7.39909 0.0 22.33713
541 1 5 0.00000 4.55887 7.39909 0.0
542 1 5 0.00000 22.33713 19.49691 0.0
543 1 5 0.00000 4.55887 19.49691 0.0
544 1 5 0.00000 22.33713 7.39909 0.0
545 1 5 0.00000 0.0 4.55887 7.39909
546 1 5 0.00000 0.0 22.33713 19.49691
547 1 5 0.00000 0.0 4.55887 19.49691
548 1 5 0.00000 0.0 22.33713 7.39909
549 1 5 0.00000 0.0 7.39909 22.33713
550 1 5 0.00000 0.0 19.49691 4.55887
551 1 5 0.00000 0.0 19.49691 22.33713
552 1 5 0.00000 0.0 7.39909 4.55887
553 1 5 0.00000 7.39909 4.55887 0.0
554 1 5 0.00000 19.49691 22.33713 0.0
555 1 5 0.00000 19.49691 4.55887 0.0
556 1 5 0.00000 7.39909 22.33713 0.0
557 1 5 0.00000 4.55887 0.0 19.49691
558 1 5 0.00000 22.33713 0.0 7.39909
559 1 5 0.00000 4.55887 0.0 7.39909
560 1 5 0.00000 22.33713 0.0 19.49691
561 1 5 0.00000 7.39909 13.448 18.00687
562 1 5 0.00000 19.49691 13.448 8.88913
563 1 5 0.00000 19.49691 13.448 18.00687
564 1 5 0.00000 7.39909 13.448 8.88913
565 1 5 0.00000 4.55887 20.84709 13.448
566 1 5 0.00000 22.33713 6.04891 13.448
567 1 5 0.00000 4.55887 6.04891 13.448
568 1 5 0.00000 22.33713 20.84709 13.448
569 1 5 0.00000 0.0 18.00687 20.84709
570 1 5 0.00000 0.0 8.88913 6.04891
571 1 5 0.00000 0.0 18.00687 6.04891
572 1 5 0.00000 0.0 8.88913 20.84709
573 1 5 0.00000 0.0 20.84709 8.88913
574 1 5 0.00000 0.0 6.04891 18.00687
575 1 5 0.00000 0.0 6.04891 8.88913
576 1 5 0.00000 0.0 20.84709 18.00687
577 1 5 0.00000 7.39909 18.00687 13.448
578 1 5 0.00000 19.49691 8.88913 13.448
579 1 5 0.00000 19.49691 18.00687 13.448
580 1 5 0.00000 7.39909 8.88913 13.448
581 1 5 0.00000 4.55887 13.448 6.04891
582 1 5 0.00000 22.33713 13.448 20.84709
583 1 5 0.00000 4.55887 13.448 20.84709
584 1 5 0.00000 22.33713 13.448 6.04891
585 1 5 0.00000 20.84709 0.0 18.00687
586 1 5 0.00000 6.04891 0.0 8.88913
587 1 5 0.00000 6.04891 0.0 18.00687
588 1 5 0.00000 20.84709 0.0 8.88913
589 1 5 0.00000 18.00687 7.39909 13.448
590 1 5 0.00000 8.88913 19.49691 13.448
591 1 5 0.00000 18.00687 19.49691 13.448
592 1 5 0.00000 8.88913 7.39909 13.448
593 1 5 0.00000 13.448 4.55887 20.84709
594 1 5 0.00000 13.448 22.33713 6.04891
595 1 5 0.00000 13.448 4.55887 6.04891
596 1 5 0.00000 13.448 22.33713 20.84709
597 1 5 0.00000 13.448 7.39909 8.88913
598 1 5 0.00000 13.448 19.49691 18.00687
599 1 5 0.00000 13.448 19.49691 8.88913
600 1 5 0.00000 13.448 7.39909 18.00687
601 1 5 0.00000 20.84709 4.55887 13.448
602 1 5 0.00000 6.04891 22.33713 13.448
603 1 5 0.00000 6.04891 4.55887 13.448
604 1 5 0.00000 20.84709 22.33713 13.448
605 1 5 0.00000 18.00687 0.0 6.04891
606 1 5 0.00000 8.88913 0.0 20.84709
607 1 5 0.00000 18.00687 0.0 20.84709
608 1 5 0.00000 8.88913 0.0 6.04891
609 1 5 0.00000 20.84709 13.448 4.55887
610 1 5 0.00000 6.04891 13.448 22.33713
611 1 5 0.00000 6.04891 13.448 4.55887
612 1 5 0.00000 20.84709 13.448 22.33713
613 1 5 0.00000 18.00687 20.84709 0.0
614 1 5 0.00000 8.88913 6.04891 0.0
615 1 5 0.00000 18.00687 6.04891 0.0
616 1 5 0.00000 8.88913 20.84709 0.0
617 1 5 0.00000 13.448 18.00687 7.39909
618 1 5 0.00000 13.448 8.88913 19.49691
619 1 5 0.00000 13.448 18.00687 19.49691
620 1 5 0.00000 13.448 8.88913 7.39909
621 1 5 0.00000 13.448 20.84709 22.33713
622 1 5 0.00000 13.448 6.04891 4.55887
623 1 5 0.00000 13.448 6.04891 22.33713
624 1 5 0.00000 13.448 20.84709 4.55887
625 1 5 0.00000 20.84709 18.00687 0.0
626 1 5 0.00000 6.04891 8.88913 0.0
627 1 5 0.00000 6.04891 18.00687 0.0
628 1 5 0.00000 20.84709 8.88913 0.0
629 1 5 0.00000 18.00687 13.448 19.49691
630 1 5 0.00000 8.88913 13.448 7.39909
631 1 5 0.00000 18.00687 13.448 7.39909
632 1 5 0.00000 8.88913 13.448 19.49691
633 1 4 0.00000 6.20491 0.0 6.20491
634 1 4 0.00000 20.69109 0.0 20.69109
635 1 4 0.00000 20.69109 0.0 6.20491
636 1 4 0.00000 6.20491 0.0 20.69109
637 1 4 0.00000 6.20491 6.20491 0.0
638 1 4 0.00000 20.69109 20.69109 0.0
639 1 4 0.00000 6.20491 20.69109 0.0
640 1 4 0.00000 20.69109 6.20491 0.0
641 1 4 0.00000 0.0 6.20491 6.20491
642 1 4 0.00000 0.0 20.69109 20.69109
643 1 4 0.00000 0.0 6.20491 20.69109
644 1 4 0.00000 0.0 20.69109 6.20491
645 1 4 0.00000 6.20491 13.448 19.65291
646 1 4 0.00000 20.69109 13.448 7.24309
647 1 4 0.00000 20.69109 13.448 19.65291
648 1 4 0.00000 6.20491 13.448 7.24309
649 1 4 0.00000 6.20491 19.65291 13.448
650 1 4 0.00000 20.69109 7.24309 13.448
651 1 4 0.00000 6.20491 7.24309 13.448
652 1 4 0.00000 20.69109 19.65291 13.448
653 1 4 0.00000 0.0 19.65291 19.65291
654 1 4 0.00000 0.0 7.24309 7.24309
655 1 4 0.00000 0.0 19.65291 7.24309
656 1 4 0.00000 0.0 7.24309 19.65291
657 1 4 0.00000 19.65291 0.0 19.65291
658 1 4 0.00000 7.24309 0.0 7.24309
659 1 4 0.00000 7.24309 0.0 19.65291
660 1 4 0.00000 19.65291 0.0 7.24309
661 1 4 0.00000 19.65291 6.20491 13.448
662 1 4 0.00000 7.24309 20.69109 13.448
663 1 4 0.00000 19.65291 20.69109 13.448
664 1 4 0.00000 7.24309 6.20491 13.448
665 1 4 0.00000 13.448 6.20491 19.65291
666 1 4 0.00000 13.448 20.69109 7.24309
667 1 4 0.00000 13.448 6.20491 7.24309
668 1 4 0.00000 13.448 20.69109 19.65291
669 1 4 0.00000 19.65291 13.448 6.20491
670 1 4 0.00000 7.24309 13.448 20.69109
671 1 4 0.00000 7.24309 13.448 6.20491
672 1 4 0.00000 19.65291 13.448 20.69109
673 1 4 0.00000 19.65291 19.65291 0.0
674 1 4 0.00000 7.24309 7.24309 0.0
675 1 4 0.00000 19.65291 7.24309 0.0
676 1 4 0.00000 7.24309 19.65291 0.0
677 1 4 0.00000 13.448 19.65291 6.20491
678 1 4 0.00000 13.448 7.24309 20.69109
679 1 4 0.00000 13.448 19.65291 20.69109
680 1 4 0.00000 13.448 7.24309 6.20491
681 1 1 0.00000 2.47551 0.0 26.896
682 1 1 0.00000 24.42049 0.0 26.896
683 1 1 0.00000 0.0 2.47551 26.896
684 1 1 0.00000 0.0 24.42049 26.896
685 1 1 0.00000 0.0 0.0 29.37151
686 1 1 0.00000 0.0 0.0 51.31649
687 1 1 0.00000 2.47551 13.448 40.344
688 1 1 0.00000 24.42049 13.448 40.344
689 1 1 0.00000 0.0 15.92351 40.344
690 1 1 0.00000 0.0 10.97249 40.344
691 1 1 0.00000 0.0 13.448 42.81951
692 1 1 0.00000 0.0 13.448 37.86849
693 1 1 0.00000 15.92351 0.0 40.344
694 1 1 0.00000 10.97249 0.0 40.344
695 1 1 0.00000 13.448 2.47551 40.344
696 1 1 0.00000 13.448 24.42049 40.344
697 1 1 0.00000 13.448 0.0 42.81951
698 1 1 0.00000 13.448 0.0 37.86849
699 1 1 0.00000 15.92351 13.448 26.896
700 1 1 0.00000 10.97249 13.448 26.896
701 1 1 0.00000 13.448 15.92351 26.896
702 1 1 0.00000 13.448 10.97249 26.896
703 1 1 0.00000 13.448 13.448 29.37151
704 1 1 0.00000 13.448 13.448 51.31649
705 1 2 0.00000 1.22108 1.22108 28.11708
706 1 2 0.00000 25.67492 25.67492 52.57092
707 1 2 0.00000 25.67492 25.67492 28.11708
708 1 2 0.00000 1.22108 1.22108 52.57092
709 1 2 0.00000 25.67492 1.22108 52.57092
710 1 2 0.00000 1.22108 25.67492 28.11708
711 1 2 0.00000 1.22108 25.67492 52.57092
712 1 2 0.00000 25.67492 1.22108 28.11708
713 1 2 0.00000 1.22108 14.66908 41.56508
714 1 2 0.00000 25.67492 12.22692 39.12292
715 1 2 0.00000 25.67492 12.22692 41.56508
716 1 2 0.00000 1.22108 14.66908 39.12292
717 1 2 0.00000 25.67492 14.66908 39.12292
718 1 2 0.00000 1.22108 12.22692 41.56508
719 1 2 0.00000 1.22108 12.22692 39.12292
720 1 2 0.00000 25.67492 14.66908 41.56508
721 1 2 0.00000 14.66908 1.22108 41.56508
722 1 2 0.00000 12.22692 25.67492 39.12292
723 1 2 0.00000 12.22692 25.67492 41.56508
724 1 2 0.00000 14.66908 1.22108 39.12292
725 1 2 0.00000 12.22692 1.22108 39.12292
726 1 2 0.00000 14.66908 25.67492 41.56508
727 1 2 0.00000 14.66908 25.67492 39.12292
728 1 2 0.00000 12.22692 1.22108 41.56508
729 1 2 0.00000 14.66908 14.66908 28.11708
730 1 2 0.00000 12.22692 12.22692 52.57092
731 1 2 0.00000 12.22692 12.22692 28.11708
732 1 2 0.00000 14.66908 14.66908 52.57092
733 1 2 0.00000 12.22692 14.66908 52.57092
734 1 2 0.00000 14.66908 12.22692 28.11708
735 1 2 0.00000 14.66908 12.22692 52.57092
736 1 2 0.00000 12.22692 14.66908 28.11708
737 1 3 0.00000 3.56641 0.0 28.82982
738 1 3 0.00000 23.32959 0.0 51.85818
739 1 3 0.00000 23.32959 0.0 28.82982
740 1 3 0.00000 3.56641 0.0 51.85818
741 1 3 0.00000 1.93382 3.56641 26.896
742 1 3 0.00000 24.96218 23.32959 26.896
743 1 3 0.00000 1.93382 23.32959 26.896
744 1 3 0.00000 24.96218 3.56641 26.896
745 1 3 0.00000 0.0 1.93382 30.46241
746 1 3 0.00000 0.0 24.96218 50.22559
747 1 3 0.00000 0.0 1.93382 50.22559
748 1 3 0.00000 0.0 24.96218 30.46241
749 1 3 0.00000 0.0 3.56641 51.85818
750 1 3 0.00000 0.0 23.32959 28.82982
751 1 3 0.00000 0.0 23.32959 51.85818
752 1 3 0.00000 0.0 3.56641 28.82982
753 1 3 0.00000 3.56641 1.93382 26.896
754 1 3 0.00000 23.32959 24.96218 26.896
755 1 3 0.00000 23.32959 1.93382 26.896
756 1 3 0.00000 3.56641 24.96218 26.896
757 1 3 0.00000 1.93382 0.0 50.22559
758 1 3 0.00000 24.96218 0.0 30.46241
759 1 3 0.00000 1.93382 0.0 30.46241
760 1 3 0.00000 24.96218 0.0 50.22559
761 1 3 0.00000 3.56641 13.448 42.27782
762 1 3 0.00000 23.32959 13.448 38.41018
763 1 3 0.00000 23.32959 13.448 42.27782
764 1 3 0.00000 3.56641 13.448 38.41018
765 1 3 0.00000 1.93382 17.01441 40.344